V -t * -v 1.0a5 -a 0
A -t * -n 1 -p 0 -o 0x7fffffff -c 30 -a 1
A -t * -h 1 -m 1073741823 -s 0
c -t * -i 1 -n Blue
c -t * -i 2 -n Red
n -t * -a 4 -s 4 -S UP -v circle -c black -i black
n -t * -a 0 -s 0 -S UP -v circle -c black -i black
n -t * -a 5 -s 5 -S UP -v circle -c black -i black
n -t * -a 1 -s 1 -S UP -v circle -c black -i black
n -t * -a 2 -s 2 -S UP -v circle -c black -i black
n -t * -a 3 -s 3 -S UP -v circle -c black -i black
l -t * -s 0 -d 2 -S UP -r 2000000 -D 0.01 -c black -o right-down
l -t * -s 1 -d 2 -S UP -r 2000000 -D 0.01 -c black -o right-up
l -t * -s 2 -d 3 -S UP -r 300000 -D 2 -c black -o right
l -t * -s 3 -d 4 -S UP -r 500000 -D 0.040000000000000001 -c black -o right-up
l -t * -s 3 -d 5 -S UP -r 500000 -D 0.029999999999999999 -c black -o right-down
q -t * -s 2 -d 3 -a 0.1
q -t * -s 3 -d 2 -a 0.1
+ -t 0.1 -s 0 -d 2 -p tcp -e 40 -c 1 -i 0 -a 1 -x {0.0 4.0 0 ------- null}
- -t 0.1 -s 0 -d 2 -p tcp -e 40 -c 1 -i 0 -a 1 -x {0.0 4.0 0 ------- null}
h -t 0.1 -s 0 -d 2 -p tcp -e 40 -c 1 -i 0 -a 1 -x {0.0 4.0 -1 ------- null}
r -t 0.11016 -s 0 -d 2 -p tcp -e 40 -c 1 -i 0 -a 1 -x {0.0 4.0 0 ------- null}
+ -t 0.11016 -s 2 -d 3 -p tcp -e 40 -c 1 -i 0 -a 1 -x {0.0 4.0 0 ------- null}
- -t 0.11016 -s 2 -d 3 -p tcp -e 40 -c 1 -i 0 -a 1 -x {0.0 4.0 0 ------- null}
h -t 0.11016 -s 2 -d 3 -p tcp -e 40 -c 1 -i 0 -a 1 -x {0.0 4.0 -1 ------- null}
r -t 2.11122666666667 -s 2 -d 3 -p tcp -e 40 -c 1 -i 0 -a 1 -x {0.0 4.0 0 ------- null}
+ -t 2.11122666666667 -s 3 -d 4 -p tcp -e 40 -c 1 -i 0 -a 1 -x {0.0 4.0 0 ------- null}
- -t 2.11122666666667 -s 3 -d 4 -p tcp -e 40 -c 1 -i 0 -a 1 -x {0.0 4.0 0 ------- null}
h -t 2.11122666666667 -s 3 -d 4 -p tcp -e 40 -c 1 -i 0 -a 1 -x {0.0 4.0 -1 ------- null}
r -t 2.15186666666667 -s 3 -d 4 -p tcp -e 40 -c 1 -i 0 -a 1 -x {0.0 4.0 0 ------- null}
+ -t 2.15186666666667 -s 4 -d 3 -p ack -e 40 -c 1 -i 1 -a 1 -x {4.0 0.0 0 ------- null}
- -t 2.15186666666667 -s 4 -d 3 -p ack -e 40 -c 1 -i 1 -a 1 -x {4.0 0.0 0 ------- null}
h -t 2.15186666666667 -s 4 -d 3 -p ack -e 40 -c 1 -i 1 -a 1 -x {4.0 0.0 -1 ------- null}
r -t 2.19250666666667 -s 4 -d 3 -p ack -e 40 -c 1 -i 1 -a 1 -x {4.0 0.0 0 ------- null}
+ -t 2.19250666666667 -s 3 -d 2 -p ack -e 40 -c 1 -i 1 -a 1 -x {4.0 0.0 0 ------- null}
- -t 2.19250666666667 -s 3 -d 2 -p ack -e 40 -c 1 -i 1 -a 1 -x {4.0 0.0 0 ------- null}
h -t 2.19250666666667 -s 3 -d 2 -p ack -e 40 -c 1 -i 1 -a 1 -x {4.0 0.0 -1 ------- null}
r -t 2.39357333333333 -s 3 -d 2 -p ack -e 40 -c 1 -i 1 -a 1 -x {4.0 0.0 0 ------- null}
+ -t 2.39357333333333 -s 2 -d 0 -p ack -e 40 -c 1 -i 1 -a 1 -x {4.0 0.0 0 ------- null}
- -t 2.39357333333333 -s 2 -d 0 -p ack -e 40 -c 1 -i 1 -a 1 -x {4.0 0.0 0 ------- null}
h -t 2.39357333333333 -s 2 -d 0 -p ack -e 40 -c 1 -i 1 -a 1 -x {4.0 0.0 -1 ------- null}
r -t 2.40373333333333 -s 2 -d 0 -p ack -e 40 -c 1 -i 1 -a 1 -x {4.0 0.0 0 ------- null}
+ -t 2.40373333333333 -s 0 -d 2 -p tcp -e 592 -c 1 -i 2 -a 1 -x {0.0 4.0 1 ------- null}
- -t 2.40373333333333 -s 0 -d 2 -p tcp -e 592 -c 1 -i 2 -a 1 -x {0.0 4.0 1 ------- null}
h -t 2.40373333333333 -s 0 -d 2 -p tcp -e 592 -c 1 -i 2 -a 1 -x {0.0 4.0 -1 ------- null}
+ -t 2.40373333333333 -s 0 -d 2 -p tcp -e 592 -c 1 -i 3 -a 1 -x {0.0 4.0 2 ------- null}
- -t 2.40610133333333 -s 0 -d 2 -p tcp -e 592 -c 1 -i 3 -a 1 -x {0.0 4.0 2 ------- null}
h -t 2.40610133333333 -s 0 -d 2 -p tcp -e 592 -c 1 -i 3 -a 1 -x {0.0 4.0 -1 ------- null}
r -t 2.41610133333333 -s 0 -d 2 -p tcp -e 592 -c 1 -i 2 -a 1 -x {0.0 4.0 1 ------- null}
+ -t 2.41610133333333 -s 2 -d 3 -p tcp -e 592 -c 1 -i 2 -a 1 -x {0.0 4.0 1 ------- null}
- -t 2.41610133333333 -s 2 -d 3 -p tcp -e 592 -c 1 -i 2 -a 1 -x {0.0 4.0 1 ------- null}
h -t 2.41610133333333 -s 2 -d 3 -p tcp -e 592 -c 1 -i 2 -a 1 -x {0.0 4.0 -1 ------- null}
r -t 2.41846933333333 -s 0 -d 2 -p tcp -e 592 -c 1 -i 3 -a 1 -x {0.0 4.0 2 ------- null}
+ -t 2.41846933333333 -s 2 -d 3 -p tcp -e 592 -c 1 -i 3 -a 1 -x {0.0 4.0 2 ------- null}
- -t 2.431888 -s 2 -d 3 -p tcp -e 592 -c 1 -i 3 -a 1 -x {0.0 4.0 2 ------- null}
h -t 2.431888 -s 2 -d 3 -p tcp -e 592 -c 1 -i 3 -a 1 -x {0.0 4.0 -1 ------- null}
r -t 4.431888 -s 2 -d 3 -p tcp -e 592 -c 1 -i 2 -a 1 -x {0.0 4.0 1 ------- null}
+ -t 4.431888 -s 3 -d 4 -p tcp -e 592 -c 1 -i 2 -a 1 -x {0.0 4.0 1 ------- null}
- -t 4.431888 -s 3 -d 4 -p tcp -e 592 -c 1 -i 2 -a 1 -x {0.0 4.0 1 ------- null}
h -t 4.431888 -s 3 -d 4 -p tcp -e 592 -c 1 -i 2 -a 1 -x {0.0 4.0 -1 ------- null}
r -t 4.44767466666667 -s 2 -d 3 -p tcp -e 592 -c 1 -i 3 -a 1 -x {0.0 4.0 2 ------- null}
+ -t 4.44767466666667 -s 3 -d 4 -p tcp -e 592 -c 1 -i 3 -a 1 -x {0.0 4.0 2 ------- null}
- -t 4.44767466666667 -s 3 -d 4 -p tcp -e 592 -c 1 -i 3 -a 1 -x {0.0 4.0 2 ------- null}
h -t 4.44767466666667 -s 3 -d 4 -p tcp -e 592 -c 1 -i 3 -a 1 -x {0.0 4.0 -1 ------- null}
r -t 4.48136 -s 3 -d 4 -p tcp -e 592 -c 1 -i 2 -a 1 -x {0.0 4.0 1 ------- null}
+ -t 4.48136 -s 4 -d 3 -p ack -e 40 -c 1 -i 4 -a 1 -x {4.0 0.0 1 ------- null}
- -t 4.48136 -s 4 -d 3 -p ack -e 40 -c 1 -i 4 -a 1 -x {4.0 0.0 1 ------- null}
h -t 4.48136 -s 4 -d 3 -p ack -e 40 -c 1 -i 4 -a 1 -x {4.0 0.0 -1 ------- null}
r -t 4.49714666666667 -s 3 -d 4 -p tcp -e 592 -c 1 -i 3 -a 1 -x {0.0 4.0 2 ------- null}
+ -t 4.49714666666667 -s 4 -d 3 -p ack -e 40 -c 1 -i 5 -a 1 -x {4.0 0.0 2 ------- null}
- -t 4.49714666666667 -s 4 -d 3 -p ack -e 40 -c 1 -i 5 -a 1 -x {4.0 0.0 2 ------- null}
h -t 4.49714666666667 -s 4 -d 3 -p ack -e 40 -c 1 -i 5 -a 1 -x {4.0 0.0 -1 ------- null}
r -t 4.522 -s 4 -d 3 -p ack -e 40 -c 1 -i 4 -a 1 -x {4.0 0.0 1 ------- null}
+ -t 4.522 -s 3 -d 2 -p ack -e 40 -c 1 -i 4 -a 1 -x {4.0 0.0 1 ------- null}
- -t 4.522 -s 3 -d 2 -p ack -e 40 -c 1 -i 4 -a 1 -x {4.0 0.0 1 ------- null}
h -t 4.522 -s 3 -d 2 -p ack -e 40 -c 1 -i 4 -a 1 -x {4.0 0.0 -1 ------- null}
r -t 4.53778666666667 -s 4 -d 3 -p ack -e 40 -c 1 -i 5 -a 1 -x {4.0 0.0 2 ------- null}
+ -t 4.53778666666667 -s 3 -d 2 -p ack -e 40 -c 1 -i 5 -a 1 -x {4.0 0.0 2 ------- null}
- -t 4.53778666666667 -s 3 -d 2 -p ack -e 40 -c 1 -i 5 -a 1 -x {4.0 0.0 2 ------- null}
h -t 4.53778666666667 -s 3 -d 2 -p ack -e 40 -c 1 -i 5 -a 1 -x {4.0 0.0 -1 ------- null}
r -t 4.72306666666667 -s 3 -d 2 -p ack -e 40 -c 1 -i 4 -a 1 -x {4.0 0.0 1 ------- null}
+ -t 4.72306666666667 -s 2 -d 0 -p ack -e 40 -c 1 -i 4 -a 1 -x {4.0 0.0 1 ------- null}
- -t 4.72306666666667 -s 2 -d 0 -p ack -e 40 -c 1 -i 4 -a 1 -x {4.0 0.0 1 ------- null}
h -t 4.72306666666667 -s 2 -d 0 -p ack -e 40 -c 1 -i 4 -a 1 -x {4.0 0.0 -1 ------- null}
r -t 4.73322666666667 -s 2 -d 0 -p ack -e 40 -c 1 -i 4 -a 1 -x {4.0 0.0 1 ------- null}
+ -t 4.73322666666667 -s 0 -d 2 -p tcp -e 592 -c 1 -i 6 -a 1 -x {0.0 4.0 3 ------- null}
- -t 4.73322666666667 -s 0 -d 2 -p tcp -e 592 -c 1 -i 6 -a 1 -x {0.0 4.0 3 ------- null}
h -t 4.73322666666667 -s 0 -d 2 -p tcp -e 592 -c 1 -i 6 -a 1 -x {0.0 4.0 -1 ------- null}
+ -t 4.73322666666667 -s 0 -d 2 -p tcp -e 592 -c 1 -i 7 -a 1 -x {0.0 4.0 4 ------- null}
- -t 4.73559466666666 -s 0 -d 2 -p tcp -e 592 -c 1 -i 7 -a 1 -x {0.0 4.0 4 ------- null}
h -t 4.73559466666666 -s 0 -d 2 -p tcp -e 592 -c 1 -i 7 -a 1 -x {0.0 4.0 -1 ------- null}
r -t 4.73885333333333 -s 3 -d 2 -p ack -e 40 -c 1 -i 5 -a 1 -x {4.0 0.0 2 ------- null}
+ -t 4.73885333333333 -s 2 -d 0 -p ack -e 40 -c 1 -i 5 -a 1 -x {4.0 0.0 2 ------- null}
- -t 4.73885333333333 -s 2 -d 0 -p ack -e 40 -c 1 -i 5 -a 1 -x {4.0 0.0 2 ------- null}
h -t 4.73885333333333 -s 2 -d 0 -p ack -e 40 -c 1 -i 5 -a 1 -x {4.0 0.0 -1 ------- null}
r -t 4.74559466666667 -s 0 -d 2 -p tcp -e 592 -c 1 -i 6 -a 1 -x {0.0 4.0 3 ------- null}
+ -t 4.74559466666667 -s 2 -d 3 -p tcp -e 592 -c 1 -i 6 -a 1 -x {0.0 4.0 3 ------- null}
- -t 4.74559466666667 -s 2 -d 3 -p tcp -e 592 -c 1 -i 6 -a 1 -x {0.0 4.0 3 ------- null}
h -t 4.74559466666667 -s 2 -d 3 -p tcp -e 592 -c 1 -i 6 -a 1 -x {0.0 4.0 -1 ------- null}
r -t 4.74796266666667 -s 0 -d 2 -p tcp -e 592 -c 1 -i 7 -a 1 -x {0.0 4.0 4 ------- null}
+ -t 4.74796266666667 -s 2 -d 3 -p tcp -e 592 -c 1 -i 7 -a 1 -x {0.0 4.0 4 ------- null}
r -t 4.74901333333333 -s 2 -d 0 -p ack -e 40 -c 1 -i 5 -a 1 -x {4.0 0.0 2 ------- null}
+ -t 4.74901333333333 -s 0 -d 2 -p tcp -e 592 -c 1 -i 8 -a 1 -x {0.0 4.0 5 ------- null}
- -t 4.74901333333333 -s 0 -d 2 -p tcp -e 592 -c 1 -i 8 -a 1 -x {0.0 4.0 5 ------- null}
h -t 4.74901333333333 -s 0 -d 2 -p tcp -e 592 -c 1 -i 8 -a 1 -x {0.0 4.0 -1 ------- null}
+ -t 4.74901333333333 -s 0 -d 2 -p tcp -e 592 -c 1 -i 9 -a 1 -x {0.0 4.0 6 ------- null}
- -t 4.75138133333333 -s 0 -d 2 -p tcp -e 592 -c 1 -i 9 -a 1 -x {0.0 4.0 6 ------- null}
h -t 4.75138133333333 -s 0 -d 2 -p tcp -e 592 -c 1 -i 9 -a 1 -x {0.0 4.0 -1 ------- null}
- -t 4.76138133333333 -s 2 -d 3 -p tcp -e 592 -c 1 -i 7 -a 1 -x {0.0 4.0 4 ------- null}
h -t 4.76138133333333 -s 2 -d 3 -p tcp -e 592 -c 1 -i 7 -a 1 -x {0.0 4.0 -1 ------- null}
r -t 4.76138133333333 -s 0 -d 2 -p tcp -e 592 -c 1 -i 8 -a 1 -x {0.0 4.0 5 ------- null}
+ -t 4.76138133333333 -s 2 -d 3 -p tcp -e 592 -c 1 -i 8 -a 1 -x {0.0 4.0 5 ------- null}
r -t 4.76374933333333 -s 0 -d 2 -p tcp -e 592 -c 1 -i 9 -a 1 -x {0.0 4.0 6 ------- null}
+ -t 4.76374933333333 -s 2 -d 3 -p tcp -e 592 -c 1 -i 9 -a 1 -x {0.0 4.0 6 ------- null}
- -t 4.777168 -s 2 -d 3 -p tcp -e 592 -c 1 -i 8 -a 1 -x {0.0 4.0 5 ------- null}
h -t 4.777168 -s 2 -d 3 -p tcp -e 592 -c 1 -i 8 -a 1 -x {0.0 4.0 -1 ------- null}
- -t 4.79295466666667 -s 2 -d 3 -p tcp -e 592 -c 1 -i 9 -a 1 -x {0.0 4.0 6 ------- null}
h -t 4.79295466666667 -s 2 -d 3 -p tcp -e 592 -c 1 -i 9 -a 1 -x {0.0 4.0 -1 ------- null}
r -t 6.76138133333333 -s 2 -d 3 -p tcp -e 592 -c 1 -i 6 -a 1 -x {0.0 4.0 3 ------- null}
+ -t 6.76138133333333 -s 3 -d 4 -p tcp -e 592 -c 1 -i 6 -a 1 -x {0.0 4.0 3 ------- null}
- -t 6.76138133333333 -s 3 -d 4 -p tcp -e 592 -c 1 -i 6 -a 1 -x {0.0 4.0 3 ------- null}
h -t 6.76138133333333 -s 3 -d 4 -p tcp -e 592 -c 1 -i 6 -a 1 -x {0.0 4.0 -1 ------- null}
r -t 6.777168 -s 2 -d 3 -p tcp -e 592 -c 1 -i 7 -a 1 -x {0.0 4.0 4 ------- null}
+ -t 6.777168 -s 3 -d 4 -p tcp -e 592 -c 1 -i 7 -a 1 -x {0.0 4.0 4 ------- null}
- -t 6.777168 -s 3 -d 4 -p tcp -e 592 -c 1 -i 7 -a 1 -x {0.0 4.0 4 ------- null}
h -t 6.777168 -s 3 -d 4 -p tcp -e 592 -c 1 -i 7 -a 1 -x {0.0 4.0 -1 ------- null}
r -t 6.79295466666667 -s 2 -d 3 -p tcp -e 592 -c 1 -i 8 -a 1 -x {0.0 4.0 5 ------- null}
+ -t 6.79295466666667 -s 3 -d 4 -p tcp -e 592 -c 1 -i 8 -a 1 -x {0.0 4.0 5 ------- null}
- -t 6.79295466666667 -s 3 -d 4 -p tcp -e 592 -c 1 -i 8 -a 1 -x {0.0 4.0 5 ------- null}
h -t 6.79295466666667 -s 3 -d 4 -p tcp -e 592 -c 1 -i 8 -a 1 -x {0.0 4.0 -1 ------- null}
r -t 6.80874133333333 -s 2 -d 3 -p tcp -e 592 -c 1 -i 9 -a 1 -x {0.0 4.0 6 ------- null}
+ -t 6.80874133333333 -s 3 -d 4 -p tcp -e 592 -c 1 -i 9 -a 1 -x {0.0 4.0 6 ------- null}
- -t 6.80874133333333 -s 3 -d 4 -p tcp -e 592 -c 1 -i 9 -a 1 -x {0.0 4.0 6 ------- null}
h -t 6.80874133333333 -s 3 -d 4 -p tcp -e 592 -c 1 -i 9 -a 1 -x {0.0 4.0 -1 ------- null}
r -t 6.81085333333333 -s 3 -d 4 -p tcp -e 592 -c 1 -i 6 -a 1 -x {0.0 4.0 3 ------- null}
+ -t 6.81085333333333 -s 4 -d 3 -p ack -e 40 -c 1 -i 10 -a 1 -x {4.0 0.0 3 ------- null}
- -t 6.81085333333333 -s 4 -d 3 -p ack -e 40 -c 1 -i 10 -a 1 -x {4.0 0.0 3 ------- null}
h -t 6.81085333333333 -s 4 -d 3 -p ack -e 40 -c 1 -i 10 -a 1 -x {4.0 0.0 -1 ------- null}
r -t 6.82664 -s 3 -d 4 -p tcp -e 592 -c 1 -i 7 -a 1 -x {0.0 4.0 4 ------- null}
+ -t 6.82664 -s 4 -d 3 -p ack -e 40 -c 1 -i 11 -a 1 -x {4.0 0.0 4 ------- null}
- -t 6.82664 -s 4 -d 3 -p ack -e 40 -c 1 -i 11 -a 1 -x {4.0 0.0 4 ------- null}
h -t 6.82664 -s 4 -d 3 -p ack -e 40 -c 1 -i 11 -a 1 -x {4.0 0.0 -1 ------- null}
r -t 6.84242666666667 -s 3 -d 4 -p tcp -e 592 -c 1 -i 8 -a 1 -x {0.0 4.0 5 ------- null}
+ -t 6.84242666666667 -s 4 -d 3 -p ack -e 40 -c 1 -i 12 -a 1 -x {4.0 0.0 5 ------- null}
- -t 6.84242666666667 -s 4 -d 3 -p ack -e 40 -c 1 -i 12 -a 1 -x {4.0 0.0 5 ------- null}
h -t 6.84242666666667 -s 4 -d 3 -p ack -e 40 -c 1 -i 12 -a 1 -x {4.0 0.0 -1 ------- null}
r -t 6.85149333333333 -s 4 -d 3 -p ack -e 40 -c 1 -i 10 -a 1 -x {4.0 0.0 3 ------- null}
+ -t 6.85149333333333 -s 3 -d 2 -p ack -e 40 -c 1 -i 10 -a 1 -x {4.0 0.0 3 ------- null}
- -t 6.85149333333333 -s 3 -d 2 -p ack -e 40 -c 1 -i 10 -a 1 -x {4.0 0.0 3 ------- null}
h -t 6.85149333333333 -s 3 -d 2 -p ack -e 40 -c 1 -i 10 -a 1 -x {4.0 0.0 -1 ------- null}
r -t 6.85821333333333 -s 3 -d 4 -p tcp -e 592 -c 1 -i 9 -a 1 -x {0.0 4.0 6 ------- null}
+ -t 6.85821333333333 -s 4 -d 3 -p ack -e 40 -c 1 -i 13 -a 1 -x {4.0 0.0 6 ------- null}
- -t 6.85821333333333 -s 4 -d 3 -p ack -e 40 -c 1 -i 13 -a 1 -x {4.0 0.0 6 ------- null}
h -t 6.85821333333333 -s 4 -d 3 -p ack -e 40 -c 1 -i 13 -a 1 -x {4.0 0.0 -1 ------- null}
r -t 6.86728 -s 4 -d 3 -p ack -e 40 -c 1 -i 11 -a 1 -x {4.0 0.0 4 ------- null}
+ -t 6.86728 -s 3 -d 2 -p ack -e 40 -c 1 -i 11 -a 1 -x {4.0 0.0 4 ------- null}
- -t 6.86728 -s 3 -d 2 -p ack -e 40 -c 1 -i 11 -a 1 -x {4.0 0.0 4 ------- null}
h -t 6.86728 -s 3 -d 2 -p ack -e 40 -c 1 -i 11 -a 1 -x {4.0 0.0 -1 ------- null}
r -t 6.88306666666667 -s 4 -d 3 -p ack -e 40 -c 1 -i 12 -a 1 -x {4.0 0.0 5 ------- null}
+ -t 6.88306666666667 -s 3 -d 2 -p ack -e 40 -c 1 -i 12 -a 1 -x {4.0 0.0 5 ------- null}
- -t 6.88306666666667 -s 3 -d 2 -p ack -e 40 -c 1 -i 12 -a 1 -x {4.0 0.0 5 ------- null}
h -t 6.88306666666667 -s 3 -d 2 -p ack -e 40 -c 1 -i 12 -a 1 -x {4.0 0.0 -1 ------- null}
r -t 6.89885333333333 -s 4 -d 3 -p ack -e 40 -c 1 -i 13 -a 1 -x {4.0 0.0 6 ------- null}
+ -t 6.89885333333333 -s 3 -d 2 -p ack -e 40 -c 1 -i 13 -a 1 -x {4.0 0.0 6 ------- null}
- -t 6.89885333333333 -s 3 -d 2 -p ack -e 40 -c 1 -i 13 -a 1 -x {4.0 0.0 6 ------- null}
h -t 6.89885333333333 -s 3 -d 2 -p ack -e 40 -c 1 -i 13 -a 1 -x {4.0 0.0 -1 ------- null}
r -t 7.05256 -s 3 -d 2 -p ack -e 40 -c 1 -i 10 -a 1 -x {4.0 0.0 3 ------- null}
+ -t 7.05256 -s 2 -d 0 -p ack -e 40 -c 1 -i 10 -a 1 -x {4.0 0.0 3 ------- null}
- -t 7.05256 -s 2 -d 0 -p ack -e 40 -c 1 -i 10 -a 1 -x {4.0 0.0 3 ------- null}
h -t 7.05256 -s 2 -d 0 -p ack -e 40 -c 1 -i 10 -a 1 -x {4.0 0.0 -1 ------- null}
r -t 7.06272 -s 2 -d 0 -p ack -e 40 -c 1 -i 10 -a 1 -x {4.0 0.0 3 ------- null}
+ -t 7.06272 -s 0 -d 2 -p tcp -e 592 -c 1 -i 14 -a 1 -x {0.0 4.0 7 ------- null}
- -t 7.06272 -s 0 -d 2 -p tcp -e 592 -c 1 -i 14 -a 1 -x {0.0 4.0 7 ------- null}
h -t 7.06272 -s 0 -d 2 -p tcp -e 592 -c 1 -i 14 -a 1 -x {0.0 4.0 -1 ------- null}
+ -t 7.06272 -s 0 -d 2 -p tcp -e 592 -c 1 -i 15 -a 1 -x {0.0 4.0 8 ------- null}
- -t 7.065088 -s 0 -d 2 -p tcp -e 592 -c 1 -i 15 -a 1 -x {0.0 4.0 8 ------- null}
h -t 7.065088 -s 0 -d 2 -p tcp -e 592 -c 1 -i 15 -a 1 -x {0.0 4.0 -1 ------- null}
r -t 7.06834666666667 -s 3 -d 2 -p ack -e 40 -c 1 -i 11 -a 1 -x {4.0 0.0 4 ------- null}
+ -t 7.06834666666667 -s 2 -d 0 -p ack -e 40 -c 1 -i 11 -a 1 -x {4.0 0.0 4 ------- null}
- -t 7.06834666666667 -s 2 -d 0 -p ack -e 40 -c 1 -i 11 -a 1 -x {4.0 0.0 4 ------- null}
h -t 7.06834666666667 -s 2 -d 0 -p ack -e 40 -c 1 -i 11 -a 1 -x {4.0 0.0 -1 ------- null}
r -t 7.075088 -s 0 -d 2 -p tcp -e 592 -c 1 -i 14 -a 1 -x {0.0 4.0 7 ------- null}
+ -t 7.075088 -s 2 -d 3 -p tcp -e 592 -c 1 -i 14 -a 1 -x {0.0 4.0 7 ------- null}
- -t 7.075088 -s 2 -d 3 -p tcp -e 592 -c 1 -i 14 -a 1 -x {0.0 4.0 7 ------- null}
h -t 7.075088 -s 2 -d 3 -p tcp -e 592 -c 1 -i 14 -a 1 -x {0.0 4.0 -1 ------- null}
r -t 7.077456 -s 0 -d 2 -p tcp -e 592 -c 1 -i 15 -a 1 -x {0.0 4.0 8 ------- null}
+ -t 7.077456 -s 2 -d 3 -p tcp -e 592 -c 1 -i 15 -a 1 -x {0.0 4.0 8 ------- null}
r -t 7.07850666666667 -s 2 -d 0 -p ack -e 40 -c 1 -i 11 -a 1 -x {4.0 0.0 4 ------- null}
+ -t 7.07850666666667 -s 0 -d 2 -p tcp -e 592 -c 1 -i 16 -a 1 -x {0.0 4.0 9 ------- null}
- -t 7.07850666666667 -s 0 -d 2 -p tcp -e 592 -c 1 -i 16 -a 1 -x {0.0 4.0 9 ------- null}
h -t 7.07850666666667 -s 0 -d 2 -p tcp -e 592 -c 1 -i 16 -a 1 -x {0.0 4.0 -1 ------- null}
+ -t 7.07850666666667 -s 0 -d 2 -p tcp -e 592 -c 1 -i 17 -a 1 -x {0.0 4.0 10 ------- null}
- -t 7.08087466666667 -s 0 -d 2 -p tcp -e 592 -c 1 -i 17 -a 1 -x {0.0 4.0 10 ------- null}
h -t 7.08087466666667 -s 0 -d 2 -p tcp -e 592 -c 1 -i 17 -a 1 -x {0.0 4.0 -1 ------- null}
r -t 7.08413333333333 -s 3 -d 2 -p ack -e 40 -c 1 -i 12 -a 1 -x {4.0 0.0 5 ------- null}
+ -t 7.08413333333333 -s 2 -d 0 -p ack -e 40 -c 1 -i 12 -a 1 -x {4.0 0.0 5 ------- null}
- -t 7.08413333333333 -s 2 -d 0 -p ack -e 40 -c 1 -i 12 -a 1 -x {4.0 0.0 5 ------- null}
h -t 7.08413333333333 -s 2 -d 0 -p ack -e 40 -c 1 -i 12 -a 1 -x {4.0 0.0 -1 ------- null}
- -t 7.09087466666667 -s 2 -d 3 -p tcp -e 592 -c 1 -i 15 -a 1 -x {0.0 4.0 8 ------- null}
h -t 7.09087466666667 -s 2 -d 3 -p tcp -e 592 -c 1 -i 15 -a 1 -x {0.0 4.0 -1 ------- null}
r -t 7.09087466666667 -s 0 -d 2 -p tcp -e 592 -c 1 -i 16 -a 1 -x {0.0 4.0 9 ------- null}
+ -t 7.09087466666667 -s 2 -d 3 -p tcp -e 592 -c 1 -i 16 -a 1 -x {0.0 4.0 9 ------- null}
r -t 7.09324266666667 -s 0 -d 2 -p tcp -e 592 -c 1 -i 17 -a 1 -x {0.0 4.0 10 ------- null}
+ -t 7.09324266666667 -s 2 -d 3 -p tcp -e 592 -c 1 -i 17 -a 1 -x {0.0 4.0 10 ------- null}
r -t 7.09429333333333 -s 2 -d 0 -p ack -e 40 -c 1 -i 12 -a 1 -x {4.0 0.0 5 ------- null}
+ -t 7.09429333333333 -s 0 -d 2 -p tcp -e 592 -c 1 -i 18 -a 1 -x {0.0 4.0 11 ------- null}
- -t 7.09429333333333 -s 0 -d 2 -p tcp -e 592 -c 1 -i 18 -a 1 -x {0.0 4.0 11 ------- null}
h -t 7.09429333333333 -s 0 -d 2 -p tcp -e 592 -c 1 -i 18 -a 1 -x {0.0 4.0 -1 ------- null}
+ -t 7.09429333333333 -s 0 -d 2 -p tcp -e 592 -c 1 -i 19 -a 1 -x {0.0 4.0 12 ------- null}
- -t 7.09666133333333 -s 0 -d 2 -p tcp -e 592 -c 1 -i 19 -a 1 -x {0.0 4.0 12 ------- null}
h -t 7.09666133333333 -s 0 -d 2 -p tcp -e 592 -c 1 -i 19 -a 1 -x {0.0 4.0 -1 ------- null}
r -t 7.09992 -s 3 -d 2 -p ack -e 40 -c 1 -i 13 -a 1 -x {4.0 0.0 6 ------- null}
+ -t 7.09992 -s 2 -d 0 -p ack -e 40 -c 1 -i 13 -a 1 -x {4.0 0.0 6 ------- null}
- -t 7.09992 -s 2 -d 0 -p ack -e 40 -c 1 -i 13 -a 1 -x {4.0 0.0 6 ------- null}
h -t 7.09992 -s 2 -d 0 -p ack -e 40 -c 1 -i 13 -a 1 -x {4.0 0.0 -1 ------- null}
- -t 7.10666133333333 -s 2 -d 3 -p tcp -e 592 -c 1 -i 16 -a 1 -x {0.0 4.0 9 ------- null}
h -t 7.10666133333333 -s 2 -d 3 -p tcp -e 592 -c 1 -i 16 -a 1 -x {0.0 4.0 -1 ------- null}
r -t 7.10666133333333 -s 0 -d 2 -p tcp -e 592 -c 1 -i 18 -a 1 -x {0.0 4.0 11 ------- null}
+ -t 7.10666133333333 -s 2 -d 3 -p tcp -e 592 -c 1 -i 18 -a 1 -x {0.0 4.0 11 ------- null}
r -t 7.10902933333333 -s 0 -d 2 -p tcp -e 592 -c 1 -i 19 -a 1 -x {0.0 4.0 12 ------- null}
+ -t 7.10902933333333 -s 2 -d 3 -p tcp -e 592 -c 1 -i 19 -a 1 -x {0.0 4.0 12 ------- null}
r -t 7.11008 -s 2 -d 0 -p ack -e 40 -c 1 -i 13 -a 1 -x {4.0 0.0 6 ------- null}
+ -t 7.11008 -s 0 -d 2 -p tcp -e 592 -c 1 -i 20 -a 1 -x {0.0 4.0 13 ------- null}
- -t 7.11008 -s 0 -d 2 -p tcp -e 592 -c 1 -i 20 -a 1 -x {0.0 4.0 13 ------- null}
h -t 7.11008 -s 0 -d 2 -p tcp -e 592 -c 1 -i 20 -a 1 -x {0.0 4.0 -1 ------- null}
+ -t 7.11008 -s 0 -d 2 -p tcp -e 592 -c 1 -i 21 -a 1 -x {0.0 4.0 14 ------- null}
- -t 7.112448 -s 0 -d 2 -p tcp -e 592 -c 1 -i 21 -a 1 -x {0.0 4.0 14 ------- null}
h -t 7.112448 -s 0 -d 2 -p tcp -e 592 -c 1 -i 21 -a 1 -x {0.0 4.0 -1 ------- null}
- -t 7.122448 -s 2 -d 3 -p tcp -e 592 -c 1 -i 17 -a 1 -x {0.0 4.0 10 ------- null}
h -t 7.122448 -s 2 -d 3 -p tcp -e 592 -c 1 -i 17 -a 1 -x {0.0 4.0 -1 ------- null}
r -t 7.122448 -s 0 -d 2 -p tcp -e 592 -c 1 -i 20 -a 1 -x {0.0 4.0 13 ------- null}
+ -t 7.122448 -s 2 -d 3 -p tcp -e 592 -c 1 -i 20 -a 1 -x {0.0 4.0 13 ------- null}
r -t 7.124816 -s 0 -d 2 -p tcp -e 592 -c 1 -i 21 -a 1 -x {0.0 4.0 14 ------- null}
+ -t 7.124816 -s 2 -d 3 -p tcp -e 592 -c 1 -i 21 -a 1 -x {0.0 4.0 14 ------- null}
- -t 7.13823466666667 -s 2 -d 3 -p tcp -e 592 -c 1 -i 18 -a 1 -x {0.0 4.0 11 ------- null}
h -t 7.13823466666667 -s 2 -d 3 -p tcp -e 592 -c 1 -i 18 -a 1 -x {0.0 4.0 -1 ------- null}
- -t 7.15402133333333 -s 2 -d 3 -p tcp -e 592 -c 1 -i 19 -a 1 -x {0.0 4.0 12 ------- null}
h -t 7.15402133333333 -s 2 -d 3 -p tcp -e 592 -c 1 -i 19 -a 1 -x {0.0 4.0 -1 ------- null}
- -t 7.169808 -s 2 -d 3 -p tcp -e 592 -c 1 -i 20 -a 1 -x {0.0 4.0 13 ------- null}
h -t 7.169808 -s 2 -d 3 -p tcp -e 592 -c 1 -i 20 -a 1 -x {0.0 4.0 -1 ------- null}
- -t 7.18559466666667 -s 2 -d 3 -p tcp -e 592 -c 1 -i 21 -a 1 -x {0.0 4.0 14 ------- null}
h -t 7.18559466666667 -s 2 -d 3 -p tcp -e 592 -c 1 -i 21 -a 1 -x {0.0 4.0 -1 ------- null}
r -t 9.09087466666667 -s 2 -d 3 -p tcp -e 592 -c 1 -i 14 -a 1 -x {0.0 4.0 7 ------- null}
+ -t 9.09087466666667 -s 3 -d 4 -p tcp -e 592 -c 1 -i 14 -a 1 -x {0.0 4.0 7 ------- null}
- -t 9.09087466666667 -s 3 -d 4 -p tcp -e 592 -c 1 -i 14 -a 1 -x {0.0 4.0 7 ------- null}
h -t 9.09087466666667 -s 3 -d 4 -p tcp -e 592 -c 1 -i 14 -a 1 -x {0.0 4.0 -1 ------- null}
r -t 9.10666133333333 -s 2 -d 3 -p tcp -e 592 -c 1 -i 15 -a 1 -x {0.0 4.0 8 ------- null}
+ -t 9.10666133333333 -s 3 -d 4 -p tcp -e 592 -c 1 -i 15 -a 1 -x {0.0 4.0 8 ------- null}
- -t 9.10666133333333 -s 3 -d 4 -p tcp -e 592 -c 1 -i 15 -a 1 -x {0.0 4.0 8 ------- null}
h -t 9.10666133333333 -s 3 -d 4 -p tcp -e 592 -c 1 -i 15 -a 1 -x {0.0 4.0 -1 ------- null}
r -t 9.122448 -s 2 -d 3 -p tcp -e 592 -c 1 -i 16 -a 1 -x {0.0 4.0 9 ------- null}
+ -t 9.122448 -s 3 -d 4 -p tcp -e 592 -c 1 -i 16 -a 1 -x {0.0 4.0 9 ------- null}
- -t 9.122448 -s 3 -d 4 -p tcp -e 592 -c 1 -i 16 -a 1 -x {0.0 4.0 9 ------- null}
h -t 9.122448 -s 3 -d 4 -p tcp -e 592 -c 1 -i 16 -a 1 -x {0.0 4.0 -1 ------- null}
r -t 9.13823466666667 -s 2 -d 3 -p tcp -e 592 -c 1 -i 17 -a 1 -x {0.0 4.0 10 ------- null}
+ -t 9.13823466666667 -s 3 -d 4 -p tcp -e 592 -c 1 -i 17 -a 1 -x {0.0 4.0 10 ------- null}
- -t 9.13823466666667 -s 3 -d 4 -p tcp -e 592 -c 1 -i 17 -a 1 -x {0.0 4.0 10 ------- null}
h -t 9.13823466666667 -s 3 -d 4 -p tcp -e 592 -c 1 -i 17 -a 1 -x {0.0 4.0 -1 ------- null}
r -t 9.14034666666667 -s 3 -d 4 -p tcp -e 592 -c 1 -i 14 -a 1 -x {0.0 4.0 7 ------- null}
+ -t 9.14034666666667 -s 4 -d 3 -p ack -e 40 -c 1 -i 22 -a 1 -x {4.0 0.0 7 ------- null}
- -t 9.14034666666667 -s 4 -d 3 -p ack -e 40 -c 1 -i 22 -a 1 -x {4.0 0.0 7 ------- null}
h -t 9.14034666666667 -s 4 -d 3 -p ack -e 40 -c 1 -i 22 -a 1 -x {4.0 0.0 -1 ------- null}
r -t 9.15402133333333 -s 2 -d 3 -p tcp -e 592 -c 1 -i 18 -a 1 -x {0.0 4.0 11 ------- null}
+ -t 9.15402133333333 -s 3 -d 4 -p tcp -e 592 -c 1 -i 18 -a 1 -x {0.0 4.0 11 ------- null}
- -t 9.15402133333333 -s 3 -d 4 -p tcp -e 592 -c 1 -i 18 -a 1 -x {0.0 4.0 11 ------- null}
h -t 9.15402133333333 -s 3 -d 4 -p tcp -e 592 -c 1 -i 18 -a 1 -x {0.0 4.0 -1 ------- null}
r -t 9.15613333333333 -s 3 -d 4 -p tcp -e 592 -c 1 -i 15 -a 1 -x {0.0 4.0 8 ------- null}
+ -t 9.15613333333333 -s 4 -d 3 -p ack -e 40 -c 1 -i 23 -a 1 -x {4.0 0.0 8 ------- null}
- -t 9.15613333333333 -s 4 -d 3 -p ack -e 40 -c 1 -i 23 -a 1 -x {4.0 0.0 8 ------- null}
h -t 9.15613333333333 -s 4 -d 3 -p ack -e 40 -c 1 -i 23 -a 1 -x {4.0 0.0 -1 ------- null}
r -t 9.169808 -s 2 -d 3 -p tcp -e 592 -c 1 -i 19 -a 1 -x {0.0 4.0 12 ------- null}
+ -t 9.169808 -s 3 -d 4 -p tcp -e 592 -c 1 -i 19 -a 1 -x {0.0 4.0 12 ------- null}
- -t 9.169808 -s 3 -d 4 -p tcp -e 592 -c 1 -i 19 -a 1 -x {0.0 4.0 12 ------- null}
h -t 9.169808 -s 3 -d 4 -p tcp -e 592 -c 1 -i 19 -a 1 -x {0.0 4.0 -1 ------- null}
r -t 9.17192 -s 3 -d 4 -p tcp -e 592 -c 1 -i 16 -a 1 -x {0.0 4.0 9 ------- null}
+ -t 9.17192 -s 4 -d 3 -p ack -e 40 -c 1 -i 24 -a 1 -x {4.0 0.0 9 ------- null}
- -t 9.17192 -s 4 -d 3 -p ack -e 40 -c 1 -i 24 -a 1 -x {4.0 0.0 9 ------- null}
h -t 9.17192 -s 4 -d 3 -p ack -e 40 -c 1 -i 24 -a 1 -x {4.0 0.0 -1 ------- null}
r -t 9.18098666666667 -s 4 -d 3 -p ack -e 40 -c 1 -i 22 -a 1 -x {4.0 0.0 7 ------- null}
+ -t 9.18098666666667 -s 3 -d 2 -p ack -e 40 -c 1 -i 22 -a 1 -x {4.0 0.0 7 ------- null}
- -t 9.18098666666667 -s 3 -d 2 -p ack -e 40 -c 1 -i 22 -a 1 -x {4.0 0.0 7 ------- null}
h -t 9.18098666666667 -s 3 -d 2 -p ack -e 40 -c 1 -i 22 -a 1 -x {4.0 0.0 -1 ------- null}
r -t 9.18559466666667 -s 2 -d 3 -p tcp -e 592 -c 1 -i 20 -a 1 -x {0.0 4.0 13 ------- null}
+ -t 9.18559466666667 -s 3 -d 4 -p tcp -e 592 -c 1 -i 20 -a 1 -x {0.0 4.0 13 ------- null}
- -t 9.18559466666667 -s 3 -d 4 -p tcp -e 592 -c 1 -i 20 -a 1 -x {0.0 4.0 13 ------- null}
h -t 9.18559466666667 -s 3 -d 4 -p tcp -e 592 -c 1 -i 20 -a 1 -x {0.0 4.0 -1 ------- null}
r -t 9.18770666666667 -s 3 -d 4 -p tcp -e 592 -c 1 -i 17 -a 1 -x {0.0 4.0 10 ------- null}
+ -t 9.18770666666667 -s 4 -d 3 -p ack -e 40 -c 1 -i 25 -a 1 -x {4.0 0.0 10 ------- null}
- -t 9.18770666666667 -s 4 -d 3 -p ack -e 40 -c 1 -i 25 -a 1 -x {4.0 0.0 10 ------- null}
h -t 9.18770666666667 -s 4 -d 3 -p ack -e 40 -c 1 -i 25 -a 1 -x {4.0 0.0 -1 ------- null}
r -t 9.19677333333333 -s 4 -d 3 -p ack -e 40 -c 1 -i 23 -a 1 -x {4.0 0.0 8 ------- null}
+ -t 9.19677333333333 -s 3 -d 2 -p ack -e 40 -c 1 -i 23 -a 1 -x {4.0 0.0 8 ------- null}
- -t 9.19677333333333 -s 3 -d 2 -p ack -e 40 -c 1 -i 23 -a 1 -x {4.0 0.0 8 ------- null}
h -t 9.19677333333333 -s 3 -d 2 -p ack -e 40 -c 1 -i 23 -a 1 -x {4.0 0.0 -1 ------- null}
r -t 9.20138133333334 -s 2 -d 3 -p tcp -e 592 -c 1 -i 21 -a 1 -x {0.0 4.0 14 ------- null}
+ -t 9.20138133333334 -s 3 -d 4 -p tcp -e 592 -c 1 -i 21 -a 1 -x {0.0 4.0 14 ------- null}
- -t 9.20138133333334 -s 3 -d 4 -p tcp -e 592 -c 1 -i 21 -a 1 -x {0.0 4.0 14 ------- null}
h -t 9.20138133333334 -s 3 -d 4 -p tcp -e 592 -c 1 -i 21 -a 1 -x {0.0 4.0 -1 ------- null}
r -t 9.20349333333333 -s 3 -d 4 -p tcp -e 592 -c 1 -i 18 -a 1 -x {0.0 4.0 11 ------- null}
+ -t 9.20349333333333 -s 4 -d 3 -p ack -e 40 -c 1 -i 26 -a 1 -x {4.0 0.0 11 ------- null}
- -t 9.20349333333333 -s 4 -d 3 -p ack -e 40 -c 1 -i 26 -a 1 -x {4.0 0.0 11 ------- null}
h -t 9.20349333333333 -s 4 -d 3 -p ack -e 40 -c 1 -i 26 -a 1 -x {4.0 0.0 -1 ------- null}
r -t 9.21256 -s 4 -d 3 -p ack -e 40 -c 1 -i 24 -a 1 -x {4.0 0.0 9 ------- null}
+ -t 9.21256 -s 3 -d 2 -p ack -e 40 -c 1 -i 24 -a 1 -x {4.0 0.0 9 ------- null}
- -t 9.21256 -s 3 -d 2 -p ack -e 40 -c 1 -i 24 -a 1 -x {4.0 0.0 9 ------- null}
h -t 9.21256 -s 3 -d 2 -p ack -e 40 -c 1 -i 24 -a 1 -x {4.0 0.0 -1 ------- null}
r -t 9.21928 -s 3 -d 4 -p tcp -e 592 -c 1 -i 19 -a 1 -x {0.0 4.0 12 ------- null}
+ -t 9.21928 -s 4 -d 3 -p ack -e 40 -c 1 -i 27 -a 1 -x {4.0 0.0 12 ------- null}
- -t 9.21928 -s 4 -d 3 -p ack -e 40 -c 1 -i 27 -a 1 -x {4.0 0.0 12 ------- null}
h -t 9.21928 -s 4 -d 3 -p ack -e 40 -c 1 -i 27 -a 1 -x {4.0 0.0 -1 ------- null}
r -t 9.22834666666667 -s 4 -d 3 -p ack -e 40 -c 1 -i 25 -a 1 -x {4.0 0.0 10 ------- null}
+ -t 9.22834666666667 -s 3 -d 2 -p ack -e 40 -c 1 -i 25 -a 1 -x {4.0 0.0 10 ------- null}
- -t 9.22834666666667 -s 3 -d 2 -p ack -e 40 -c 1 -i 25 -a 1 -x {4.0 0.0 10 ------- null}
h -t 9.22834666666667 -s 3 -d 2 -p ack -e 40 -c 1 -i 25 -a 1 -x {4.0 0.0 -1 ------- null}
r -t 9.23506666666667 -s 3 -d 4 -p tcp -e 592 -c 1 -i 20 -a 1 -x {0.0 4.0 13 ------- null}
+ -t 9.23506666666667 -s 4 -d 3 -p ack -e 40 -c 1 -i 28 -a 1 -x {4.0 0.0 13 ------- null}
- -t 9.23506666666667 -s 4 -d 3 -p ack -e 40 -c 1 -i 28 -a 1 -x {4.0 0.0 13 ------- null}
h -t 9.23506666666667 -s 4 -d 3 -p ack -e 40 -c 1 -i 28 -a 1 -x {4.0 0.0 -1 ------- null}
r -t 9.24413333333333 -s 4 -d 3 -p ack -e 40 -c 1 -i 26 -a 1 -x {4.0 0.0 11 ------- null}
+ -t 9.24413333333333 -s 3 -d 2 -p ack -e 40 -c 1 -i 26 -a 1 -x {4.0 0.0 11 ------- null}
- -t 9.24413333333333 -s 3 -d 2 -p ack -e 40 -c 1 -i 26 -a 1 -x {4.0 0.0 11 ------- null}
h -t 9.24413333333333 -s 3 -d 2 -p ack -e 40 -c 1 -i 26 -a 1 -x {4.0 0.0 -1 ------- null}
r -t 9.25085333333334 -s 3 -d 4 -p tcp -e 592 -c 1 -i 21 -a 1 -x {0.0 4.0 14 ------- null}
+ -t 9.25085333333334 -s 4 -d 3 -p ack -e 40 -c 1 -i 29 -a 1 -x {4.0 0.0 14 ------- null}
- -t 9.25085333333334 -s 4 -d 3 -p ack -e 40 -c 1 -i 29 -a 1 -x {4.0 0.0 14 ------- null}
h -t 9.25085333333334 -s 4 -d 3 -p ack -e 40 -c 1 -i 29 -a 1 -x {4.0 0.0 -1 ------- null}
r -t 9.25992 -s 4 -d 3 -p ack -e 40 -c 1 -i 27 -a 1 -x {4.0 0.0 12 ------- null}
+ -t 9.25992 -s 3 -d 2 -p ack -e 40 -c 1 -i 27 -a 1 -x {4.0 0.0 12 ------- null}
- -t 9.25992 -s 3 -d 2 -p ack -e 40 -c 1 -i 27 -a 1 -x {4.0 0.0 12 ------- null}
h -t 9.25992 -s 3 -d 2 -p ack -e 40 -c 1 -i 27 -a 1 -x {4.0 0.0 -1 ------- null}
r -t 9.27570666666667 -s 4 -d 3 -p ack -e 40 -c 1 -i 28 -a 1 -x {4.0 0.0 13 ------- null}
+ -t 9.27570666666667 -s 3 -d 2 -p ack -e 40 -c 1 -i 28 -a 1 -x {4.0 0.0 13 ------- null}
- -t 9.27570666666667 -s 3 -d 2 -p ack -e 40 -c 1 -i 28 -a 1 -x {4.0 0.0 13 ------- null}
h -t 9.27570666666667 -s 3 -d 2 -p ack -e 40 -c 1 -i 28 -a 1 -x {4.0 0.0 -1 ------- null}
r -t 9.29149333333334 -s 4 -d 3 -p ack -e 40 -c 1 -i 29 -a 1 -x {4.0 0.0 14 ------- null}
+ -t 9.29149333333334 -s 3 -d 2 -p ack -e 40 -c 1 -i 29 -a 1 -x {4.0 0.0 14 ------- null}
- -t 9.29149333333334 -s 3 -d 2 -p ack -e 40 -c 1 -i 29 -a 1 -x {4.0 0.0 14 ------- null}
h -t 9.29149333333334 -s 3 -d 2 -p ack -e 40 -c 1 -i 29 -a 1 -x {4.0 0.0 -1 ------- null}
r -t 9.38205333333333 -s 3 -d 2 -p ack -e 40 -c 1 -i 22 -a 1 -x {4.0 0.0 7 ------- null}
+ -t 9.38205333333333 -s 2 -d 0 -p ack -e 40 -c 1 -i 22 -a 1 -x {4.0 0.0 7 ------- null}
- -t 9.38205333333333 -s 2 -d 0 -p ack -e 40 -c 1 -i 22 -a 1 -x {4.0 0.0 7 ------- null}
h -t 9.38205333333333 -s 2 -d 0 -p ack -e 40 -c 1 -i 22 -a 1 -x {4.0 0.0 -1 ------- null}
r -t 9.39221333333333 -s 2 -d 0 -p ack -e 40 -c 1 -i 22 -a 1 -x {4.0 0.0 7 ------- null}
+ -t 9.39221333333333 -s 0 -d 2 -p tcp -e 592 -c 1 -i 30 -a 1 -x {0.0 4.0 15 ------- null}
- -t 9.39221333333333 -s 0 -d 2 -p tcp -e 592 -c 1 -i 30 -a 1 -x {0.0 4.0 15 ------- null}
h -t 9.39221333333333 -s 0 -d 2 -p tcp -e 592 -c 1 -i 30 -a 1 -x {0.0 4.0 -1 ------- null}
+ -t 9.39221333333333 -s 0 -d 2 -p tcp -e 592 -c 1 -i 31 -a 1 -x {0.0 4.0 16 ------- null}
- -t 9.39458133333333 -s 0 -d 2 -p tcp -e 592 -c 1 -i 31 -a 1 -x {0.0 4.0 16 ------- null}
h -t 9.39458133333333 -s 0 -d 2 -p tcp -e 592 -c 1 -i 31 -a 1 -x {0.0 4.0 -1 ------- null}
r -t 9.39784 -s 3 -d 2 -p ack -e 40 -c 1 -i 23 -a 1 -x {4.0 0.0 8 ------- null}
+ -t 9.39784 -s 2 -d 0 -p ack -e 40 -c 1 -i 23 -a 1 -x {4.0 0.0 8 ------- null}
- -t 9.39784 -s 2 -d 0 -p ack -e 40 -c 1 -i 23 -a 1 -x {4.0 0.0 8 ------- null}
h -t 9.39784 -s 2 -d 0 -p ack -e 40 -c 1 -i 23 -a 1 -x {4.0 0.0 -1 ------- null}